% Model:              fullKimballMirror.mph
% Version:            COMSOL 5.3.1.275
% Date:               Jul 1 2020, 16:37
% Dimension:          3
% Nodes:              1
% Expressions:        469
% Description:        Electric field, x component, Electric field, y component, Electric field, z component, Voltage at node 1, Voltage across device V1, Voltage at node 2, Lumped port voltage
% Length unit:        mm
% X                       Y                        Z                        emw.Ex (V/m) @ freq=3.4E9                         emw.Ey (V/m) @ freq=3.4E9                         emw.Ez (V/m) @ freq=3.4E9                         cir.v_1 (V) @ freq=3.4E9                          cir.V1_v (V) @ freq=3.4E9 cir.v_2 (V) @ freq=3.4E9                          emw.Vport_1 (V) @ freq=3.4E9                      emw.Ex (V/m) @ freq=3.5E9                         emw.Ey (V/m) @ freq=3.5E9                         emw.Ez (V/m) @ freq=3.5E9                         cir.v_1 (V) @ freq=3.5E9                          cir.V1_v (V) @ freq=3.5E9 cir.v_2 (V) @ freq=3.5E9                          emw.Vport_1 (V) @ freq=3.5E9                      emw.Ex (V/m) @ freq=3.6E9                         emw.Ey (V/m) @ freq=3.6E9                         emw.Ez (V/m) @ freq=3.6E9                         cir.v_1 (V) @ freq=3.6E9                          cir.V1_v (V) @ freq=3.6E9 cir.v_2 (V) @ freq=3.6E9                          emw.Vport_1 (V) @ freq=3.6E9                      emw.Ex (V/m) @ freq=3.7E9                         emw.Ey (V/m) @ freq=3.7E9                         emw.Ez (V/m) @ freq=3.7E9                         cir.v_1 (V) @ freq=3.7E9                          cir.V1_v (V) @ freq=3.7E9 cir.v_2 (V) @ freq=3.7E9                          emw.Vport_1 (V) @ freq=3.7E9                      emw.Ex (V/m) @ freq=3.8E9                         emw.Ey (V/m) @ freq=3.8E9                         emw.Ez (V/m) @ freq=3.8E9                         cir.v_1 (V) @ freq=3.8E9                          cir.V1_v (V) @ freq=3.8E9 cir.v_2 (V) @ freq=3.8E9                          emw.Vport_1 (V) @ freq=3.8E9                      emw.Ex (V/m) @ freq=3.9E9                         emw.Ey (V/m) @ freq=3.9E9                         emw.Ez (V/m) @ freq=3.9E9                         cir.v_1 (V) @ freq=3.9E9                          cir.V1_v (V) @ freq=3.9E9 cir.v_2 (V) @ freq=3.9E9                          emw.Vport_1 (V) @ freq=3.9E9                      emw.Ex (V/m) @ freq=4E9                           emw.Ey (V/m) @ freq=4E9                           emw.Ez (V/m) @ freq=4E9                           cir.v_1 (V) @ freq=4E9                            cir.V1_v (V) @ freq=4E9  cir.v_2 (V) @ freq=4E9                            emw.Vport_1 (V) @ freq=4E9                        emw.Ex (V/m) @ freq=4.1E9                         emw.Ey (V/m) @ freq=4.1E9                         emw.Ez (V/m) @ freq=4.1E9                         cir.v_1 (V) @ freq=4.1E9                          cir.V1_v (V) @ freq=4.1E9 cir.v_2 (V) @ freq=4.1E9                          emw.Vport_1 (V) @ freq=4.1E9                      emw.Ex (V/m) @ freq=4.2E9                         emw.Ey (V/m) @ freq=4.2E9                         emw.Ez (V/m) @ freq=4.2E9                         cir.v_1 (V) @ freq=4.2E9                          cir.V1_v (V) @ freq=4.2E9 cir.v_2 (V) @ freq=4.2E9                          emw.Vport_1 (V) @ freq=4.2E9                      emw.Ex (V/m) @ freq=4.3E9                         emw.Ey (V/m) @ freq=4.3E9                         emw.Ez (V/m) @ freq=4.3E9                         cir.v_1 (V) @ freq=4.3E9                          cir.V1_v (V) @ freq=4.3E9 cir.v_2 (V) @ freq=4.3E9                          emw.Vport_1 (V) @ freq=4.3E9                      emw.Ex (V/m) @ freq=4.4E9                         emw.Ey (V/m) @ freq=4.4E9                         emw.Ez (V/m) @ freq=4.4E9                         cir.v_1 (V) @ freq=4.4E9                          cir.V1_v (V) @ freq=4.4E9 cir.v_2 (V) @ freq=4.4E9                          emw.Vport_1 (V) @ freq=4.4E9                      emw.Ex (V/m) @ freq=4.5E9                         emw.Ey (V/m) @ freq=4.5E9                         emw.Ez (V/m) @ freq=4.5E9                         cir.v_1 (V) @ freq=4.5E9                          cir.V1_v (V) @ freq=4.5E9 cir.v_2 (V) @ freq=4.5E9                          emw.Vport_1 (V) @ freq=4.5E9                      emw.Ex (V/m) @ freq=4.6E9                         emw.Ey (V/m) @ freq=4.6E9                         emw.Ez (V/m) @ freq=4.6E9                         cir.v_1 (V) @ freq=4.6E9                          cir.V1_v (V) @ freq=4.6E9 cir.v_2 (V) @ freq=4.6E9                          emw.Vport_1 (V) @ freq=4.6E9                      emw.Ex (V/m) @ freq=4.7E9                         emw.Ey (V/m) @ freq=4.7E9                         emw.Ez (V/m) @ freq=4.7E9                         cir.v_1 (V) @ freq=4.7E9                          cir.V1_v (V) @ freq=4.7E9 cir.v_2 (V) @ freq=4.7E9                          emw.Vport_1 (V) @ freq=4.7E9                      emw.Ex (V/m) @ freq=4.8E9                         emw.Ey (V/m) @ freq=4.8E9                         emw.Ez (V/m) @ freq=4.8E9                         cir.v_1 (V) @ freq=4.8E9                          cir.V1_v (V) @ freq=4.8E9 cir.v_2 (V) @ freq=4.8E9                          emw.Vport_1 (V) @ freq=4.8E9                      emw.Ex (V/m) @ freq=4.9E9                         emw.Ey (V/m) @ freq=4.9E9                         emw.Ez (V/m) @ freq=4.9E9                         cir.v_1 (V) @ freq=4.9E9                          cir.V1_v (V) @ freq=4.9E9 cir.v_2 (V) @ freq=4.9E9                          emw.Vport_1 (V) @ freq=4.9E9                      emw.Ex (V/m) @ freq=5E9                           emw.Ey (V/m) @ freq=5E9                           emw.Ez (V/m) @ freq=5E9                           cir.v_1 (V) @ freq=5E9                            cir.V1_v (V) @ freq=5E9  cir.v_2 (V) @ freq=5E9                            emw.Vport_1 (V) @ freq=5E9                        emw.Ex (V/m) @ freq=5.1E9                         emw.Ey (V/m) @ freq=5.1E9                         emw.Ez (V/m) @ freq=5.1E9                         cir.v_1 (V) @ freq=5.1E9                          cir.V1_v (V) @ freq=5.1E9 cir.v_2 (V) @ freq=5.1E9                          emw.Vport_1 (V) @ freq=5.1E9                      emw.Ex (V/m) @ freq=5.2E9                         emw.Ey (V/m) @ freq=5.2E9                         emw.Ez (V/m) @ freq=5.2E9                         cir.v_1 (V) @ freq=5.2E9                          cir.V1_v (V) @ freq=5.2E9 cir.v_2 (V) @ freq=5.2E9                          emw.Vport_1 (V) @ freq=5.2E9                      emw.Ex (V/m) @ freq=5.3E9                         emw.Ey (V/m) @ freq=5.3E9                         emw.Ez (V/m) @ freq=5.3E9                         cir.v_1 (V) @ freq=5.3E9                          cir.V1_v (V) @ freq=5.3E9 cir.v_2 (V) @ freq=5.3E9                          emw.Vport_1 (V) @ freq=5.3E9                      emw.Ex (V/m) @ freq=5.4E9                         emw.Ey (V/m) @ freq=5.4E9                         emw.Ez (V/m) @ freq=5.4E9                         cir.v_1 (V) @ freq=5.4E9                          cir.V1_v (V) @ freq=5.4E9 cir.v_2 (V) @ freq=5.4E9                          emw.Vport_1 (V) @ freq=5.4E9                      emw.Ex (V/m) @ freq=5.5E9                         emw.Ey (V/m) @ freq=5.5E9                         emw.Ez (V/m) @ freq=5.5E9                         cir.v_1 (V) @ freq=5.5E9                          cir.V1_v (V) @ freq=5.5E9 cir.v_2 (V) @ freq=5.5E9                          emw.Vport_1 (V) @ freq=5.5E9                      emw.Ex (V/m) @ freq=5.6E9                         emw.Ey (V/m) @ freq=5.6E9                         emw.Ez (V/m) @ freq=5.6E9                         cir.v_1 (V) @ freq=5.6E9                          cir.V1_v (V) @ freq=5.6E9 cir.v_2 (V) @ freq=5.6E9                          emw.Vport_1 (V) @ freq=5.6E9                      emw.Ex (V/m) @ freq=5.7E9                         emw.Ey (V/m) @ freq=5.7E9                         emw.Ez (V/m) @ freq=5.7E9                         cir.v_1 (V) @ freq=5.7E9                          cir.V1_v (V) @ freq=5.7E9 cir.v_2 (V) @ freq=5.7E9                          emw.Vport_1 (V) @ freq=5.7E9                      emw.Ex (V/m) @ freq=5.8E9                         emw.Ey (V/m) @ freq=5.8E9                         emw.Ez (V/m) @ freq=5.8E9                         cir.v_1 (V) @ freq=5.8E9                          cir.V1_v (V) @ freq=5.8E9 cir.v_2 (V) @ freq=5.8E9                          emw.Vport_1 (V) @ freq=5.8E9                      emw.Ex (V/m) @ freq=5.9E9                         emw.Ey (V/m) @ freq=5.9E9                         emw.Ez (V/m) @ freq=5.9E9                         cir.v_1 (V) @ freq=5.9E9                          cir.V1_v (V) @ freq=5.9E9 cir.v_2 (V) @ freq=5.9E9                          emw.Vport_1 (V) @ freq=5.9E9                      emw.Ex (V/m) @ freq=6E9                           emw.Ey (V/m) @ freq=6E9                           emw.Ez (V/m) @ freq=6E9                           cir.v_1 (V) @ freq=6E9                            cir.V1_v (V) @ freq=6E9  cir.v_2 (V) @ freq=6E9                            emw.Vport_1 (V) @ freq=6E9                        emw.Ex (V/m) @ freq=6.1E9                         emw.Ey (V/m) @ freq=6.1E9                         emw.Ez (V/m) @ freq=6.1E9                         cir.v_1 (V) @ freq=6.1E9                          cir.V1_v (V) @ freq=6.1E9 cir.v_2 (V) @ freq=6.1E9                          emw.Vport_1 (V) @ freq=6.1E9                      emw.Ex (V/m) @ freq=6.2E9                         emw.Ey (V/m) @ freq=6.2E9                         emw.Ez (V/m) @ freq=6.2E9                         cir.v_1 (V) @ freq=6.2E9                          cir.V1_v (V) @ freq=6.2E9 cir.v_2 (V) @ freq=6.2E9                          emw.Vport_1 (V) @ freq=6.2E9                      emw.Ex (V/m) @ freq=6.3E9                         emw.Ey (V/m) @ freq=6.3E9                         emw.Ez (V/m) @ freq=6.3E9                         cir.v_1 (V) @ freq=6.3E9                          cir.V1_v (V) @ freq=6.3E9 cir.v_2 (V) @ freq=6.3E9                          emw.Vport_1 (V) @ freq=6.3E9                      emw.Ex (V/m) @ freq=6.4E9                         emw.Ey (V/m) @ freq=6.4E9                         emw.Ez (V/m) @ freq=6.4E9                         cir.v_1 (V) @ freq=6.4E9                          cir.V1_v (V) @ freq=6.4E9 cir.v_2 (V) @ freq=6.4E9                          emw.Vport_1 (V) @ freq=6.4E9                      emw.Ex (V/m) @ freq=6.5E9                         emw.Ey (V/m) @ freq=6.5E9                         emw.Ez (V/m) @ freq=6.5E9                         cir.v_1 (V) @ freq=6.5E9                          cir.V1_v (V) @ freq=6.5E9 cir.v_2 (V) @ freq=6.5E9                          emw.Vport_1 (V) @ freq=6.5E9                      emw.Ex (V/m) @ freq=6.6E9                         emw.Ey (V/m) @ freq=6.6E9                         emw.Ez (V/m) @ freq=6.6E9                         cir.v_1 (V) @ freq=6.6E9                          cir.V1_v (V) @ freq=6.6E9 cir.v_2 (V) @ freq=6.6E9                          emw.Vport_1 (V) @ freq=6.6E9                      emw.Ex (V/m) @ freq=6.7E9                         emw.Ey (V/m) @ freq=6.7E9                         emw.Ez (V/m) @ freq=6.7E9                         cir.v_1 (V) @ freq=6.7E9                          cir.V1_v (V) @ freq=6.7E9 cir.v_2 (V) @ freq=6.7E9                          emw.Vport_1 (V) @ freq=6.7E9                      emw.Ex (V/m) @ freq=6.8E9                         emw.Ey (V/m) @ freq=6.8E9                         emw.Ez (V/m) @ freq=6.8E9                         cir.v_1 (V) @ freq=6.8E9                          cir.V1_v (V) @ freq=6.8E9 cir.v_2 (V) @ freq=6.8E9                          emw.Vport_1 (V) @ freq=6.8E9                      emw.Ex (V/m) @ freq=6.9E9                         emw.Ey (V/m) @ freq=6.9E9                         emw.Ez (V/m) @ freq=6.9E9                         cir.v_1 (V) @ freq=6.9E9                          cir.V1_v (V) @ freq=6.9E9 cir.v_2 (V) @ freq=6.9E9                          emw.Vport_1 (V) @ freq=6.9E9                      emw.Ex (V/m) @ freq=7E9                           emw.Ey (V/m) @ freq=7E9                           emw.Ez (V/m) @ freq=7E9                           cir.v_1 (V) @ freq=7E9                            cir.V1_v (V) @ freq=7E9  cir.v_2 (V) @ freq=7E9                            emw.Vport_1 (V) @ freq=7E9                        emw.Ex (V/m) @ freq=7.1E9                         emw.Ey (V/m) @ freq=7.1E9                         emw.Ez (V/m) @ freq=7.1E9                         cir.v_1 (V) @ freq=7.1E9                          cir.V1_v (V) @ freq=7.1E9 cir.v_2 (V) @ freq=7.1E9                          emw.Vport_1 (V) @ freq=7.1E9                      emw.Ex (V/m) @ freq=7.2E9                         emw.Ey (V/m) @ freq=7.2E9                         emw.Ez (V/m) @ freq=7.2E9                         cir.v_1 (V) @ freq=7.2E9                          cir.V1_v (V) @ freq=7.2E9 cir.v_2 (V) @ freq=7.2E9                          emw.Vport_1 (V) @ freq=7.2E9                      emw.Ex (V/m) @ freq=7.3E9                         emw.Ey (V/m) @ freq=7.3E9                         emw.Ez (V/m) @ freq=7.3E9                         cir.v_1 (V) @ freq=7.3E9                          cir.V1_v (V) @ freq=7.3E9 cir.v_2 (V) @ freq=7.3E9                          emw.Vport_1 (V) @ freq=7.3E9                      emw.Ex (V/m) @ freq=7.4E9                         emw.Ey (V/m) @ freq=7.4E9                         emw.Ez (V/m) @ freq=7.4E9                         cir.v_1 (V) @ freq=7.4E9                          cir.V1_v (V) @ freq=7.4E9 cir.v_2 (V) @ freq=7.4E9                          emw.Vport_1 (V) @ freq=7.4E9                      emw.Ex (V/m) @ freq=7.5E9                         emw.Ey (V/m) @ freq=7.5E9                         emw.Ez (V/m) @ freq=7.5E9                         cir.v_1 (V) @ freq=7.5E9                          cir.V1_v (V) @ freq=7.5E9 cir.v_2 (V) @ freq=7.5E9                          emw.Vport_1 (V) @ freq=7.5E9                      emw.Ex (V/m) @ freq=7.6E9                         emw.Ey (V/m) @ freq=7.6E9                         emw.Ez (V/m) @ freq=7.6E9                         cir.v_1 (V) @ freq=7.6E9                          cir.V1_v (V) @ freq=7.6E9 cir.v_2 (V) @ freq=7.6E9                          emw.Vport_1 (V) @ freq=7.6E9                      emw.Ex (V/m) @ freq=7.7E9                         emw.Ey (V/m) @ freq=7.7E9                         emw.Ez (V/m) @ freq=7.7E9                         cir.v_1 (V) @ freq=7.7E9                          cir.V1_v (V) @ freq=7.7E9 cir.v_2 (V) @ freq=7.7E9                          emw.Vport_1 (V) @ freq=7.7E9                      emw.Ex (V/m) @ freq=7.8E9                         emw.Ey (V/m) @ freq=7.8E9                         emw.Ez (V/m) @ freq=7.8E9                         cir.v_1 (V) @ freq=7.8E9                          cir.V1_v (V) @ freq=7.8E9 cir.v_2 (V) @ freq=7.8E9                          emw.Vport_1 (V) @ freq=7.8E9                      emw.Ex (V/m) @ freq=7.9E9                         emw.Ey (V/m) @ freq=7.9E9                         emw.Ez (V/m) @ freq=7.9E9                         cir.v_1 (V) @ freq=7.9E9                          cir.V1_v (V) @ freq=7.9E9 cir.v_2 (V) @ freq=7.9E9                          emw.Vport_1 (V) @ freq=7.9E9                      emw.Ex (V/m) @ freq=8E9                           emw.Ey (V/m) @ freq=8E9                           emw.Ez (V/m) @ freq=8E9                           cir.v_1 (V) @ freq=8E9                            cir.V1_v (V) @ freq=8E9  cir.v_2 (V) @ freq=8E9                            emw.Vport_1 (V) @ freq=8E9                        emw.Ex (V/m) @ freq=8.1E9                         emw.Ey (V/m) @ freq=8.1E9                         emw.Ez (V/m) @ freq=8.1E9                         cir.v_1 (V) @ freq=8.1E9                          cir.V1_v (V) @ freq=8.1E9 cir.v_2 (V) @ freq=8.1E9                          emw.Vport_1 (V) @ freq=8.1E9                      emw.Ex (V/m) @ freq=8.2E9                         emw.Ey (V/m) @ freq=8.2E9                         emw.Ez (V/m) @ freq=8.2E9                         cir.v_1 (V) @ freq=8.2E9                          cir.V1_v (V) @ freq=8.2E9 cir.v_2 (V) @ freq=8.2E9                          emw.Vport_1 (V) @ freq=8.2E9                      emw.Ex (V/m) @ freq=8.3E9                         emw.Ey (V/m) @ freq=8.3E9                         emw.Ez (V/m) @ freq=8.3E9                         cir.v_1 (V) @ freq=8.3E9                          cir.V1_v (V) @ freq=8.3E9 cir.v_2 (V) @ freq=8.3E9                          emw.Vport_1 (V) @ freq=8.3E9                      emw.Ex (V/m) @ freq=8.4E9                         emw.Ey (V/m) @ freq=8.4E9                         emw.Ez (V/m) @ freq=8.4E9                         cir.v_1 (V) @ freq=8.4E9                          cir.V1_v (V) @ freq=8.4E9 cir.v_2 (V) @ freq=8.4E9                          emw.Vport_1 (V) @ freq=8.4E9                      emw.Ex (V/m) @ freq=8.5E9                         emw.Ey (V/m) @ freq=8.5E9                         emw.Ez (V/m) @ freq=8.5E9                         cir.v_1 (V) @ freq=8.5E9                          cir.V1_v (V) @ freq=8.5E9 cir.v_2 (V) @ freq=8.5E9                          emw.Vport_1 (V) @ freq=8.5E9                      emw.Ex (V/m) @ freq=8.6E9                         emw.Ey (V/m) @ freq=8.6E9                         emw.Ez (V/m) @ freq=8.6E9                         cir.v_1 (V) @ freq=8.6E9                          cir.V1_v (V) @ freq=8.6E9 cir.v_2 (V) @ freq=8.6E9                          emw.Vport_1 (V) @ freq=8.6E9                      emw.Ex (V/m) @ freq=8.7E9                         emw.Ey (V/m) @ freq=8.7E9                         emw.Ez (V/m) @ freq=8.7E9                         cir.v_1 (V) @ freq=8.7E9                          cir.V1_v (V) @ freq=8.7E9 cir.v_2 (V) @ freq=8.7E9                          emw.Vport_1 (V) @ freq=8.7E9                      emw.Ex (V/m) @ freq=8.8E9                         emw.Ey (V/m) @ freq=8.8E9                         emw.Ez (V/m) @ freq=8.8E9                         cir.v_1 (V) @ freq=8.8E9                          cir.V1_v (V) @ freq=8.8E9 cir.v_2 (V) @ freq=8.8E9                          emw.Vport_1 (V) @ freq=8.8E9                      emw.Ex (V/m) @ freq=8.9E9                         emw.Ey (V/m) @ freq=8.9E9                         emw.Ez (V/m) @ freq=8.9E9                         cir.v_1 (V) @ freq=8.9E9                          cir.V1_v (V) @ freq=8.9E9 cir.v_2 (V) @ freq=8.9E9                          emw.Vport_1 (V) @ freq=8.9E9                      emw.Ex (V/m) @ freq=9E9                           emw.Ey (V/m) @ freq=9E9                           emw.Ez (V/m) @ freq=9E9                           cir.v_1 (V) @ freq=9E9                            cir.V1_v (V) @ freq=9E9  cir.v_2 (V) @ freq=9E9                            emw.Vport_1 (V) @ freq=9E9                        emw.Ex (V/m) @ freq=9.1E9                         emw.Ey (V/m) @ freq=9.1E9                         emw.Ez (V/m) @ freq=9.1E9                         cir.v_1 (V) @ freq=9.1E9                          cir.V1_v (V) @ freq=9.1E9 cir.v_2 (V) @ freq=9.1E9                          emw.Vport_1 (V) @ freq=9.1E9                      emw.Ex (V/m) @ freq=9.2E9                         emw.Ey (V/m) @ freq=9.2E9                         emw.Ez (V/m) @ freq=9.2E9                         cir.v_1 (V) @ freq=9.2E9                          cir.V1_v (V) @ freq=9.2E9 cir.v_2 (V) @ freq=9.2E9                          emw.Vport_1 (V) @ freq=9.2E9                      emw.Ex (V/m) @ freq=9.3E9                         emw.Ey (V/m) @ freq=9.3E9                         emw.Ez (V/m) @ freq=9.3E9                         cir.v_1 (V) @ freq=9.3E9                          cir.V1_v (V) @ freq=9.3E9 cir.v_2 (V) @ freq=9.3E9                          emw.Vport_1 (V) @ freq=9.3E9                      emw.Ex (V/m) @ freq=9.4E9                         emw.Ey (V/m) @ freq=9.4E9                         emw.Ez (V/m) @ freq=9.4E9                         cir.v_1 (V) @ freq=9.4E9                          cir.V1_v (V) @ freq=9.4E9 cir.v_2 (V) @ freq=9.4E9                          emw.Vport_1 (V) @ freq=9.4E9                      emw.Ex (V/m) @ freq=9.5E9                         emw.Ey (V/m) @ freq=9.5E9                         emw.Ez (V/m) @ freq=9.5E9                         cir.v_1 (V) @ freq=9.5E9                          cir.V1_v (V) @ freq=9.5E9 cir.v_2 (V) @ freq=9.5E9                          emw.Vport_1 (V) @ freq=9.5E9                      emw.Ex (V/m) @ freq=9.6E9                         emw.Ey (V/m) @ freq=9.6E9                         emw.Ez (V/m) @ freq=9.6E9                         cir.v_1 (V) @ freq=9.6E9                          cir.V1_v (V) @ freq=9.6E9 cir.v_2 (V) @ freq=9.6E9                          emw.Vport_1 (V) @ freq=9.6E9                      emw.Ex (V/m) @ freq=9.7E9                         emw.Ey (V/m) @ freq=9.7E9                         emw.Ez (V/m) @ freq=9.7E9                         cir.v_1 (V) @ freq=9.7E9                          cir.V1_v (V) @ freq=9.7E9 cir.v_2 (V) @ freq=9.7E9                          emw.Vport_1 (V) @ freq=9.7E9                      emw.Ex (V/m) @ freq=9.8E9                         emw.Ey (V/m) @ freq=9.8E9                         emw.Ez (V/m) @ freq=9.8E9                         cir.v_1 (V) @ freq=9.8E9                          cir.V1_v (V) @ freq=9.8E9 cir.v_2 (V) @ freq=9.8E9                          emw.Vport_1 (V) @ freq=9.8E9                      emw.Ex (V/m) @ freq=9.9E9                         emw.Ey (V/m) @ freq=9.9E9                         emw.Ez (V/m) @ freq=9.9E9                         cir.v_1 (V) @ freq=9.9E9                          cir.V1_v (V) @ freq=9.9E9 cir.v_2 (V) @ freq=9.9E9                          emw.Vport_1 (V) @ freq=9.9E9                      emw.Ex (V/m) @ freq=1E10                          emw.Ey (V/m) @ freq=1E10                          emw.Ez (V/m) @ freq=1E10                          cir.v_1 (V) @ freq=1E10                           cir.V1_v (V) @ freq=1E10 cir.v_2 (V) @ freq=1E10                           emw.Vport_1 (V) @ freq=1E10