% Model:              fullKimballMirror.mph
% Version:            COMSOL 5.3.1.275
% Date:               Jul 29 2020, 12:51
% Dimension:          3
% Nodes:              1
% Expressions:        7000
% Description:        Electric field, x component, Electric field, y component, Electric field, z component, Voltage at node 1, Voltage across device V1, Voltage at node 2, Lumped port voltage
% Length unit:        mm
% X                       Y                        Z                        emw.Ex (V/m) @ freq=1E7                           emw.Ey (V/m) @ freq=1E7                           emw.Ez (V/m) @ freq=1E7                           cir.v_1 (V) @ freq=1E7                            cir.V1_v (V) @ freq=1E7  cir.v_2 (V) @ freq=1E7                            emw.Vport_1 (V) @ freq=1E7                        emw.Ex (V/m) @ freq=2E7                           emw.Ey (V/m) @ freq=2E7                           emw.Ez (V/m) @ freq=2E7                           cir.v_1 (V) @ freq=2E7                            cir.V1_v (V) @ freq=2E7  cir.v_2 (V) @ freq=2E7                            emw.Vport_1 (V) @ freq=2E7                        emw.Ex (V/m) @ freq=3E7                           emw.Ey (V/m) @ freq=3E7                           emw.Ez (V/m) @ freq=3E7                           cir.v_1 (V) @ freq=3E7                            cir.V1_v (V) @ freq=3E7  cir.v_2 (V) @ freq=3E7                            emw.Vport_1 (V) @ freq=3E7                        emw.Ex (V/m) @ freq=4E7                           emw.Ey (V/m) @ freq=4E7                           emw.Ez (V/m) @ freq=4E7                           cir.v_1 (V) @ freq=4E7                            cir.V1_v (V) @ freq=4E7  cir.v_2 (V) @ freq=4E7                            emw.Vport_1 (V) @ freq=4E7                        emw.Ex (V/m) @ freq=5E7                           emw.Ey (V/m) @ freq=5E7                           emw.Ez (V/m) @ freq=5E7                           cir.v_1 (V) @ freq=5E7                            cir.V1_v (V) @ freq=5E7  cir.v_2 (V) @ freq=5E7                            emw.Vport_1 (V) @ freq=5E7                        emw.Ex (V/m) @ freq=6E7                           emw.Ey (V/m) @ freq=6E7                           emw.Ez (V/m) @ freq=6E7                           cir.v_1 (V) @ freq=6E7                            cir.V1_v (V) @ freq=6E7  cir.v_2 (V) @ freq=6E7                            emw.Vport_1 (V) @ freq=6E7                        emw.Ex (V/m) @ freq=7E7                           emw.Ey (V/m) @ freq=7E7                           emw.Ez (V/m) @ freq=7E7                           cir.v_1 (V) @ freq=7E7                            cir.V1_v (V) @ freq=7E7  cir.v_2 (V) @ freq=7E7                            emw.Vport_1 (V) @ freq=7E7                        emw.Ex (V/m) @ freq=8E7                           emw.Ey (V/m) @ freq=8E7                           emw.Ez (V/m) @ freq=8E7                           cir.v_1 (V) @ freq=8E7                            cir.V1_v (V) @ freq=8E7  cir.v_2 (V) @ freq=8E7                            emw.Vport_1 (V) @ freq=8E7                        emw.Ex (V/m) @ freq=9E7                           emw.Ey (V/m) @ freq=9E7                           emw.Ez (V/m) @ freq=9E7                           cir.v_1 (V) @ freq=9E7                            cir.V1_v (V) @ freq=9E7  cir.v_2 (V) @ freq=9E7                            emw.Vport_1 (V) @ freq=9E7                        emw.Ex (V/m) @ freq=1E8                           emw.Ey (V/m) @ freq=1E8                           emw.Ez (V/m) @ freq=1E8                           cir.v_1 (V) @ freq=1E8                            cir.V1_v (V) @ freq=1E8  cir.v_2 (V) @ freq=1E8                            emw.Vport_1 (V) @ freq=1E8                        emw.Ex (V/m) @ freq=1.1E8                         emw.Ey (V/m) @ freq=1.1E8                         emw.Ez (V/m) @ freq=1.1E8                         cir.v_1 (V) @ freq=1.1E8                          cir.V1_v (V) @ freq=1.1E8 cir.v_2 (V) @ freq=1.1E8                          emw.Vport_1 (V) @ freq=1.1E8                      emw.Ex (V/m) @ freq=1.2E8                         emw.Ey (V/m) @ freq=1.2E8                         emw.Ez (V/m) @ freq=1.2E8                         cir.v_1 (V) @ freq=1.2E8                          cir.V1_v (V) @ freq=1.2E8 cir.v_2 (V) @ freq=1.2E8                          emw.Vport_1 (V) @ freq=1.2E8                      emw.Ex (V/m) @ freq=1.3E8                         emw.Ey (V/m) @ freq=1.3E8                         emw.Ez (V/m) @ freq=1.3E8                         cir.v_1 (V) @ freq=1.3E8                          cir.V1_v (V) @ freq=1.3E8 cir.v_2 (V) @ freq=1.3E8                          emw.Vport_1 (V) @ freq=1.3E8                      emw.Ex (V/m) @ freq=1.4E8                         emw.Ey (V/m) @ freq=1.4E8                         emw.Ez (V/m) @ freq=1.4E8                         cir.v_1 (V) @ freq=1.4E8                          cir.V1_v (V) @ freq=1.4E8 cir.v_2 (V) @ freq=1.4E8                          emw.Vport_1 (V) @ freq=1.4E8                      emw.Ex (V/m) @ freq=1.5E8                         emw.Ey (V/m) @ freq=1.5E8                         emw.Ez (V/m) @ freq=1.5E8                         cir.v_1 (V) @ freq=1.5E8                          cir.V1_v (V) @ freq=1.5E8 cir.v_2 (V) @ freq=1.5E8                          emw.Vport_1 (V) @ freq=1.5E8                      emw.Ex (V/m) @ freq=1.6E8                         emw.Ey (V/m) @ freq=1.6E8                         emw.Ez (V/m) @ freq=1.6E8                         cir.v_1 (V) @ freq=1.6E8                          cir.V1_v (V) @ freq=1.6E8 cir.v_2 (V) @ freq=1.6E8                          emw.Vport_1 (V) @ freq=1.6E8                      emw.Ex (V/m) @ freq=1.7E8                         emw.Ey (V/m) @ freq=1.7E8                         emw.Ez (V/m) @ freq=1.7E8                         cir.v_1 (V) @ freq=1.7E8                          cir.V1_v (V) @ freq=1.7E8 cir.v_2 (V) @ freq=1.7E8                          emw.Vport_1 (V) @ freq=1.7E8                      emw.Ex (V/m) @ freq=1.8E8                         emw.Ey (V/m) @ freq=1.8E8                         emw.Ez (V/m) @ freq=1.8E8                         cir.v_1 (V) @ freq=1.8E8                          cir.V1_v (V) @ freq=1.8E8 cir.v_2 (V) @ freq=1.8E8                          emw.Vport_1 (V) @ freq=1.8E8                      emw.Ex (V/m) @ freq=1.9E8                         emw.Ey (V/m) @ freq=1.9E8                         emw.Ez (V/m) @ freq=1.9E8                         cir.v_1 (V) @ freq=1.9E8                          cir.V1_v (V) @ freq=1.9E8 cir.v_2 (V) @ freq=1.9E8                          emw.Vport_1 (V) @ freq=1.9E8                      emw.Ex (V/m) @ freq=2E8                           emw.Ey (V/m) @ freq=2E8                           emw.Ez (V/m) @ freq=2E8                           cir.v_1 (V) @ freq=2E8                            cir.V1_v (V) @ freq=2E8  cir.v_2 (V) @ freq=2E8                            emw.Vport_1 (V) @ freq=2E8                        emw.Ex (V/m) @ freq=2.1E8                         emw.Ey (V/m) @ freq=2.1E8                         emw.Ez (V/m) @ freq=2.1E8                         cir.v_1 (V) @ freq=2.1E8                          cir.V1_v (V) @ freq=2.1E8 cir.v_2 (V) @ freq=2.1E8                          emw.Vport_1 (V) @ freq=2.1E8                      emw.Ex (V/m) @ freq=2.2E8                         emw.Ey (V/m) @ freq=2.2E8                         emw.Ez (V/m) @ freq=2.2E8                         cir.v_1 (V) @ freq=2.2E8                          cir.V1_v (V) @ freq=2.2E8 cir.v_2 (V) @ freq=2.2E8                          emw.Vport_1 (V) @ freq=2.2E8                      emw.Ex (V/m) @ freq=2.3E8                         emw.Ey (V/m) @ freq=2.3E8                         emw.Ez (V/m) @ freq=2.3E8                         cir.v_1 (V) @ freq=2.3E8                          cir.V1_v (V) @ freq=2.3E8 cir.v_2 (V) @ freq=2.3E8                          emw.Vport_1 (V) @ freq=2.3E8                      emw.Ex (V/m) @ freq=2.4E8                         emw.Ey (V/m) @ freq=2.4E8                         emw.Ez (V/m) @ freq=2.4E8                         cir.v_1 (V) @ freq=2.4E8                          cir.V1_v (V) @ freq=2.4E8 cir.v_2 (V) @ freq=2.4E8                          emw.Vport_1 (V) @ freq=2.4E8                      emw.Ex (V/m) @ freq=2.5E8                         emw.Ey (V/m) @ freq=2.5E8                         emw.Ez (V/m) @ freq=2.5E8                         cir.v_1 (V) @ freq=2.5E8                          cir.V1_v (V) @ freq=2.5E8 cir.v_2 (V) @ freq=2.5E8                          emw.Vport_1 (V) @ freq=2.5E8                      emw.Ex (V/m) @ freq=2.6E8                         emw.Ey (V/m) @ freq=2.6E8                         emw.Ez (V/m) @ freq=2.6E8                         cir.v_1 (V) @ freq=2.6E8                          cir.V1_v (V) @ freq=2.6E8 cir.v_2 (V) @ freq=2.6E8                          emw.Vport_1 (V) @ freq=2.6E8                      emw.Ex (V/m) @ freq=2.7E8                         emw.Ey (V/m) @ freq=2.7E8                         emw.Ez (V/m) @ freq=2.7E8                         cir.v_1 (V) @ freq=2.7E8                          cir.V1_v (V) @ freq=2.7E8 cir.v_2 (V) @ freq=2.7E8                          emw.Vport_1 (V) @ freq=2.7E8                      emw.Ex (V/m) @ freq=2.8E8                         emw.Ey (V/m) @ freq=2.8E8                         emw.Ez (V/m) @ freq=2.8E8                         cir.v_1 (V) @ freq=2.8E8                          cir.V1_v (V) @ freq=2.8E8 cir.v_2 (V) @ freq=2.8E8                          emw.Vport_1 (V) @ freq=2.8E8                      emw.Ex (V/m) @ freq=2.9E8                         emw.Ey (V/m) @ freq=2.9E8                         emw.Ez (V/m) @ freq=2.9E8                         cir.v_1 (V) @ freq=2.9E8                          cir.V1_v (V) @ freq=2.9E8 cir.v_2 (V) @ freq=2.9E8                          emw.Vport_1 (V) @ freq=2.9E8                      emw.Ex (V/m) @ freq=3E8                           emw.Ey (V/m) @ freq=3E8                           emw.Ez (V/m) @ freq=3E8                           cir.v_1 (V) @ freq=3E8                            cir.V1_v (V) @ freq=3E8  cir.v_2 (V) @ freq=3E8                            emw.Vport_1 (V) @ freq=3E8                        emw.Ex (V/m) @ freq=3.1E8                         emw.Ey (V/m) @ freq=3.1E8                         emw.Ez (V/m) @ freq=3.1E8                         cir.v_1 (V) @ freq=3.1E8                          cir.V1_v (V) @ freq=3.1E8 cir.v_2 (V) @ freq=3.1E8                          emw.Vport_1 (V) @ freq=3.1E8                      emw.Ex (V/m) @ freq=3.2E8                         emw.Ey (V/m) @ freq=3.2E8                         emw.Ez (V/m) @ freq=3.2E8                         cir.v_1 (V) @ freq=3.2E8                          cir.V1_v (V) @ freq=3.2E8 cir.v_2 (V) @ freq=3.2E8                          emw.Vport_1 (V) @ freq=3.2E8                      emw.Ex (V/m) @ freq=3.3E8                         emw.Ey (V/m) @ freq=3.3E8                         emw.Ez (V/m) @ freq=3.3E8                         cir.v_1 (V) @ freq=3.3E8                          cir.V1_v (V) @ freq=3.3E8 cir.v_2 (V) @ freq=3.3E8                          emw.Vport_1 (V) @ freq=3.3E8                      emw.Ex (V/m) @ freq=3.4E8                         emw.Ey (V/m) @ freq=3.4E8                         emw.Ez (V/m) @ freq=3.4E8                         cir.v_1 (V) @ freq=3.4E8                          cir.V1_v (V) @ freq=3.4E8 cir.v_2 (V) @ freq=3.4E8                          emw.Vport_1 (V) @ freq=3.4E8                      emw.Ex (V/m) @ freq=3.5E8                         emw.Ey (V/m) @ freq=3.5E8                         emw.Ez (V/m) @ freq=3.5E8                         cir.v_1 (V) @ freq=3.5E8                          cir.V1_v (V) @ freq=3.5E8 cir.v_2 (V) @ freq=3.5E8                          emw.Vport_1 (V) @ freq=3.5E8                      emw.Ex (V/m) @ freq=3.6E8                         emw.Ey (V/m) @ freq=3.6E8                         emw.Ez (V/m) @ freq=3.6E8                         cir.v_1 (V) @ freq=3.6E8                          cir.V1_v (V) @ freq=3.6E8 cir.v_2 (V) @ freq=3.6E8                          emw.Vport_1 (V) @ freq=3.6E8                      emw.Ex (V/m) @ freq=3.7E8                         emw.Ey (V/m) @ freq=3.7E8                         emw.Ez (V/m) @ freq=3.7E8                         cir.v_1 (V) @ freq=3.7E8                          cir.V1_v (V) @ freq=3.7E8 cir.v_2 (V) @ freq=3.7E8                          emw.Vport_1 (V) @ freq=3.7E8                      emw.Ex (V/m) @ freq=3.8E8                         emw.Ey (V/m) @ freq=3.8E8                         emw.Ez (V/m) @ freq=3.8E8                         cir.v_1 (V) @ freq=3.8E8                          cir.V1_v (V) @ freq=3.8E8 cir.v_2 (V) @ freq=3.8E8                          emw.Vport_1 (V) @ freq=3.8E8                      emw.Ex (V/m) @ freq=3.9E8                         emw.Ey (V/m) @ freq=3.9E8                         emw.Ez (V/m) @ freq=3.9E8                         cir.v_1 (V) @ freq=3.9E8                          cir.V1_v (V) @ freq=3.9E8 cir.v_2 (V) @ freq=3.9E8                          emw.Vport_1 (V) @ freq=3.9E8                      emw.Ex (V/m) @ freq=4E8                           emw.Ey (V/m) @ freq=4E8                           emw.Ez (V/m) @ freq=4E8                           cir.v_1 (V) @ freq=4E8                            cir.V1_v (V) @ freq=4E8  cir.v_2 (V) @ freq=4E8                            emw.Vport_1 (V) @ freq=4E8                        emw.Ex (V/m) @ freq=4.1E8                         emw.Ey (V/m) @ freq=4.1E8                         emw.Ez (V/m) @ freq=4.1E8                         cir.v_1 (V) @ freq=4.1E8                          cir.V1_v (V) @ freq=4.1E8 cir.v_2 (V) @ freq=4.1E8                          emw.Vport_1 (V) @ freq=4.1E8                      emw.Ex (V/m) @ freq=4.2E8                         emw.Ey (V/m) @ freq=4.2E8                         emw.Ez (V/m) @ freq=4.2E8                         cir.v_1 (V) @ freq=4.2E8                          cir.V1_v (V) @ freq=4.2E8 cir.v_2 (V) @ freq=4.2E8                          emw.Vport_1 (V) @ freq=4.2E8                      emw.Ex (V/m) @ freq=4.3E8                         emw.Ey (V/m) @ freq=4.3E8                         emw.Ez (V/m) @ freq=4.3E8                         cir.v_1 (V) @ freq=4.3E8                          cir.V1_v (V) @ freq=4.3E8 cir.v_2 (V) @ freq=4.3E8                          emw.Vport_1 (V) @ freq=4.3E8                      emw.Ex (V/m) @ freq=4.4E8                         emw.Ey (V/m) @ freq=4.4E8                         emw.Ez (V/m) @ freq=4.4E8                         cir.v_1 (V) @ freq=4.4E8                          cir.V1_v (V) @ freq=4.4E8 cir.v_2 (V) @ freq=4.4E8                          emw.Vport_1 (V) @ freq=4.4E8                      emw.Ex (V/m) @ freq=4.5E8                         emw.Ey (V/m) @ freq=4.5E8                         emw.Ez (V/m) @ freq=4.5E8                         cir.v_1 (V) @ freq=4.5E8                          cir.V1_v (V) @ freq=4.5E8 cir.v_2 (V) @ freq=4.5E8                          emw.Vport_1 (V) @ freq=4.5E8                      emw.Ex (V/m) @ freq=4.6E8                         emw.Ey (V/m) @ freq=4.6E8                         emw.Ez (V/m) @ freq=4.6E8                         cir.v_1 (V) @ freq=4.6E8                          cir.V1_v (V) @ freq=4.6E8 cir.v_2 (V) @ freq=4.6E8                          emw.Vport_1 (V) @ freq=4.6E8                      emw.Ex (V/m) @ freq=4.7E8                         emw.Ey (V/m) @ freq=4.7E8                         emw.Ez (V/m) @ freq=4.7E8                         cir.v_1 (V) @ freq=4.7E8                          cir.V1_v (V) @ freq=4.7E8 cir.v_2 (V) @ freq=4.7E8                          emw.Vport_1 (V) @ freq=4.7E8                      emw.Ex (V/m) @ freq=4.8E8                         emw.Ey (V/m) @ freq=4.8E8                         emw.Ez (V/m) @ freq=4.8E8                         cir.v_1 (V) @ freq=4.8E8                          cir.V1_v (V) @ freq=4.8E8 cir.v_2 (V) @ freq=4.8E8                          emw.Vport_1 (V) @ freq=4.8E8                      emw.Ex (V/m) @ freq=4.9E8                         emw.Ey (V/m) @ freq=4.9E8                         emw.Ez (V/m) @ freq=4.9E8                         cir.v_1 (V) @ freq=4.9E8                          cir.V1_v (V) @ freq=4.9E8 cir.v_2 (V) @ freq=4.9E8                          emw.Vport_1 (V) @ freq=4.9E8                      emw.Ex (V/m) @ freq=5E8                           emw.Ey (V/m) @ freq=5E8                           emw.Ez (V/m) @ freq=5E8                           cir.v_1 (V) @ freq=5E8                            cir.V1_v (V) @ freq=5E8  cir.v_2 (V) @ freq=5E8                            emw.Vport_1 (V) @ freq=5E8                        emw.Ex (V/m) @ freq=5.1E8                         emw.Ey (V/m) @ freq=5.1E8                         emw.Ez (V/m) @ freq=5.1E8                         cir.v_1 (V) @ freq=5.1E8                          cir.V1_v (V) @ freq=5.1E8 cir.v_2 (V) @ freq=5.1E8                          emw.Vport_1 (V) @ freq=5.1E8                      emw.Ex (V/m) @ freq=5.2E8                         emw.Ey (V/m) @ freq=5.2E8                         emw.Ez (V/m) @ freq=5.2E8                         cir.v_1 (V) @ freq=5.2E8                          cir.V1_v (V) @ freq=5.2E8 cir.v_2 (V) @ freq=5.2E8                          emw.Vport_1 (V) @ freq=5.2E8                      emw.Ex (V/m) @ freq=5.3E8                         emw.Ey (V/m) @ freq=5.3E8                         emw.Ez (V/m) @ freq=5.3E8                         cir.v_1 (V) @ freq=5.3E8                          cir.V1_v (V) @ freq=5.3E8 cir.v_2 (V) @ freq=5.3E8                          emw.Vport_1 (V) @ freq=5.3E8                      emw.Ex (V/m) @ freq=5.4E8                         emw.Ey (V/m) @ freq=5.4E8                         emw.Ez (V/m) @ freq=5.4E8                         cir.v_1 (V) @ freq=5.4E8                          cir.V1_v (V) @ freq=5.4E8 cir.v_2 (V) @ freq=5.4E8                          emw.Vport_1 (V) @ freq=5.4E8                      emw.Ex (V/m) @ freq=5.5E8                         emw.Ey (V/m) @ freq=5.5E8                         emw.Ez (V/m) @ freq=5.5E8                         cir.v_1 (V) @ freq=5.5E8                          cir.V1_v (V) @ freq=5.5E8 cir.v_2 (V) @ freq=5.5E8                          emw.Vport_1 (V) @ freq=5.5E8                      emw.Ex (V/m) @ freq=5.6E8                         emw.Ey (V/m) @ freq=5.6E8                         emw.Ez (V/m) @ freq=5.6E8                         cir.v_1 (V) @ freq=5.6E8                          cir.V1_v (V) @ freq=5.6E8 cir.v_2 (V) @ freq=5.6E8                          emw.Vport_1 (V) @ freq=5.6E8                      emw.Ex (V/m) @ freq=5.7E8                         emw.Ey (V/m) @ freq=5.7E8                         emw.Ez (V/m) @ freq=5.7E8                         cir.v_1 (V) @ freq=5.7E8                          cir.V1_v (V) @ freq=5.7E8 cir.v_2 (V) @ freq=5.7E8                          emw.Vport_1 (V) @ freq=5.7E8                      emw.Ex (V/m) @ freq=5.8E8                         emw.Ey (V/m) @ freq=5.8E8                         emw.Ez (V/m) @ freq=5.8E8                         cir.v_1 (V) @ freq=5.8E8                          cir.V1_v (V) @ freq=5.8E8 cir.v_2 (V) @ freq=5.8E8                          emw.Vport_1 (V) @ freq=5.8E8                      emw.Ex (V/m) @ freq=5.9E8                         emw.Ey (V/m) @ freq=5.9E8                         emw.Ez (V/m) @ freq=5.9E8                         cir.v_1 (V) @ freq=5.9E8                          cir.V1_v (V) @ freq=5.9E8 cir.v_2 (V) @ freq=5.9E8                          emw.Vport_1 (V) @ freq=5.9E8                      emw.Ex (V/m) @ freq=6E8                           emw.Ey (V/m) @ freq=6E8                           emw.Ez (V/m) @ freq=6E8                           cir.v_1 (V) @ freq=6E8                            cir.V1_v (V) @ freq=6E8  cir.v_2 (V) @ freq=6E8                            emw.Vport_1 (V) @ freq=6E8                        emw.Ex (V/m) @ freq=6.1E8                         emw.Ey (V/m) @ freq=6.1E8                         emw.Ez (V/m) @ freq=6.1E8                         cir.v_1 (V) @ freq=6.1E8                          cir.V1_v (V) @ freq=6.1E8 cir.v_2 (V) @ freq=6.1E8                          emw.Vport_1 (V) @ freq=6.1E8                      emw.Ex (V/m) @ freq=6.2E8                         emw.Ey (V/m) @ freq=6.2E8                         emw.Ez (V/m) @ freq=6.2E8                         cir.v_1 (V) @ freq=6.2E8                          cir.V1_v (V) @ freq=6.2E8 cir.v_2 (V) @ freq=6.2E8                          emw.Vport_1 (V) @ freq=6.2E8                      emw.Ex (V/m) @ freq=6.3E8                         emw.Ey (V/m) @ freq=6.3E8                         emw.Ez (V/m) @ freq=6.3E8                         cir.v_1 (V) @ freq=6.3E8                          cir.V1_v (V) @ freq=6.3E8 cir.v_2 (V) @ freq=6.3E8                          emw.Vport_1 (V) @ freq=6.3E8                      emw.Ex (V/m) @ freq=6.4E8                         emw.Ey (V/m) @ freq=6.4E8                         emw.Ez (V/m) @ freq=6.4E8                         cir.v_1 (V) @ freq=6.4E8                          cir.V1_v (V) @ freq=6.4E8 cir.v_2 (V) @ freq=6.4E8                          emw.Vport_1 (V) @ freq=6.4E8                      emw.Ex (V/m) @ freq=6.5E8                         emw.Ey (V/m) @ freq=6.5E8                         emw.Ez (V/m) @ freq=6.5E8                         cir.v_1 (V) @ freq=6.5E8                          cir.V1_v (V) @ freq=6.5E8 cir.v_2 (V) @ freq=6.5E8                          emw.Vport_1 (V) @ freq=6.5E8                      emw.Ex (V/m) @ freq=6.6E8                         emw.Ey (V/m) @ freq=6.6E8                         emw.Ez (V/m) @ freq=6.6E8                         cir.v_1 (V) @ freq=6.6E8                          cir.V1_v (V) @ freq=6.6E8 cir.v_2 (V) @ freq=6.6E8                          emw.Vport_1 (V) @ freq=6.6E8                      emw.Ex (V/m) @ freq=6.7E8                         emw.Ey (V/m) @ freq=6.7E8                         emw.Ez (V/m) @ freq=6.7E8                         cir.v_1 (V) @ freq=6.7E8                          cir.V1_v (V) @ freq=6.7E8 cir.v_2 (V) @ freq=6.7E8                          emw.Vport_1 (V) @ freq=6.7E8                      emw.Ex (V/m) @ freq=6.8E8                         emw.Ey (V/m) @ freq=6.8E8                         emw.Ez (V/m) @ freq=6.8E8                         cir.v_1 (V) @ freq=6.8E8                          cir.V1_v (V) @ freq=6.8E8 cir.v_2 (V) @ freq=6.8E8                          emw.Vport_1 (V) @ freq=6.8E8                      emw.Ex (V/m) @ freq=6.9E8                         emw.Ey (V/m) @ freq=6.9E8                         emw.Ez (V/m) @ freq=6.9E8                         cir.v_1 (V) @ freq=6.9E8                          cir.V1_v (V) @ freq=6.9E8 cir.v_2 (V) @ freq=6.9E8                          emw.Vport_1 (V) @ freq=6.9E8                      emw.Ex (V/m) @ freq=7E8                           emw.Ey (V/m) @ freq=7E8                           emw.Ez (V/m) @ freq=7E8                           cir.v_1 (V) @ freq=7E8                            cir.V1_v (V) @ freq=7E8  cir.v_2 (V) @ freq=7E8                            emw.Vport_1 (V) @ freq=7E8                        emw.Ex (V/m) @ freq=7.1E8                         emw.Ey (V/m) @ freq=7.1E8                         emw.Ez (V/m) @ freq=7.1E8                         cir.v_1 (V) @ freq=7.1E8                          cir.V1_v (V) @ freq=7.1E8 cir.v_2 (V) @ freq=7.1E8                          emw.Vport_1 (V) @ freq=7.1E8                      emw.Ex (V/m) @ freq=7.2E8                         emw.Ey (V/m) @ freq=7.2E8                         emw.Ez (V/m) @ freq=7.2E8                         cir.v_1 (V) @ freq=7.2E8                          cir.V1_v (V) @ freq=7.2E8 cir.v_2 (V) @ freq=7.2E8                          emw.Vport_1 (V) @ freq=7.2E8                      emw.Ex (V/m) @ freq=7.3E8                         emw.Ey (V/m) @ freq=7.3E8                         emw.Ez (V/m) @ freq=7.3E8                         cir.v_1 (V) @ freq=7.3E8                          cir.V1_v (V) @ freq=7.3E8 cir.v_2 (V) @ freq=7.3E8                          emw.Vport_1 (V) @ freq=7.3E8                      emw.Ex (V/m) @ freq=7.4E8                         emw.Ey (V/m) @ freq=7.4E8                         emw.Ez (V/m) @ freq=7.4E8                         cir.v_1 (V) @ freq=7.4E8                          cir.V1_v (V) @ freq=7.4E8 cir.v_2 (V) @ freq=7.4E8                          emw.Vport_1 (V) @ freq=7.4E8                      emw.Ex (V/m) @ freq=7.5E8                         emw.Ey (V/m) @ freq=7.5E8                         emw.Ez (V/m) @ freq=7.5E8                         cir.v_1 (V) @ freq=7.5E8                          cir.V1_v (V) @ freq=7.5E8 cir.v_2 (V) @ freq=7.5E8                          emw.Vport_1 (V) @ freq=7.5E8                      emw.Ex (V/m) @ freq=7.6E8                         emw.Ey (V/m) @ freq=7.6E8                         emw.Ez (V/m) @ freq=7.6E8                         cir.v_1 (V) @ freq=7.6E8                          cir.V1_v (V) @ freq=7.6E8 cir.v_2 (V) @ freq=7.6E8                          emw.Vport_1 (V) @ freq=7.6E8                      emw.Ex (V/m) @ freq=7.7E8                         emw.Ey (V/m) @ freq=7.7E8                         emw.Ez (V/m) @ freq=7.7E8                         cir.v_1 (V) @ freq=7.7E8                          cir.V1_v (V) @ freq=7.7E8 cir.v_2 (V) @ freq=7.7E8                          emw.Vport_1 (V) @ freq=7.7E8                      emw.Ex (V/m) @ freq=7.8E8                         emw.Ey (V/m) @ freq=7.8E8                         emw.Ez (V/m) @ freq=7.8E8                         cir.v_1 (V) @ freq=7.8E8                          cir.V1_v (V) @ freq=7.8E8 cir.v_2 (V) @ freq=7.8E8                          emw.Vport_1 (V) @ freq=7.8E8                      emw.Ex (V/m) @ freq=7.9E8                         emw.Ey (V/m) @ freq=7.9E8                         emw.Ez (V/m) @ freq=7.9E8                         cir.v_1 (V) @ freq=7.9E8                          cir.V1_v (V) @ freq=7.9E8 cir.v_2 (V) @ freq=7.9E8                          emw.Vport_1 (V) @ freq=7.9E8                      emw.Ex (V/m) @ freq=8E8                           emw.Ey (V/m) @ freq=8E8                           emw.Ez (V/m) @ freq=8E8                           cir.v_1 (V) @ freq=8E8                            cir.V1_v (V) @ freq=8E8  cir.v_2 (V) @ freq=8E8                            emw.Vport_1 (V) @ freq=8E8                        emw.Ex (V/m) @ freq=8.1E8                         emw.Ey (V/m) @ freq=8.1E8                         emw.Ez (V/m) @ freq=8.1E8                         cir.v_1 (V) @ freq=8.1E8                          cir.V1_v (V) @ freq=8.1E8 cir.v_2 (V) @ freq=8.1E8                          emw.Vport_1 (V) @ freq=8.1E8                      emw.Ex (V/m) @ freq=8.2E8                         emw.Ey (V/m) @ freq=8.2E8                         emw.Ez (V/m) @ freq=8.2E8                         cir.v_1 (V) @ freq=8.2E8                          cir.V1_v (V) @ freq=8.2E8 cir.v_2 (V) @ freq=8.2E8                          emw.Vport_1 (V) @ freq=8.2E8                      emw.Ex (V/m) @ freq=8.3E8                         emw.Ey (V/m) @ freq=8.3E8                         emw.Ez (V/m) @ freq=8.3E8                         cir.v_1 (V) @ freq=8.3E8                          cir.V1_v (V) @ freq=8.3E8 cir.v_2 (V) @ freq=8.3E8                          emw.Vport_1 (V) @ freq=8.3E8                      emw.Ex (V/m) @ freq=8.4E8                         emw.Ey (V/m) @ freq=8.4E8                         emw.Ez (V/m) @ freq=8.4E8                         cir.v_1 (V) @ freq=8.4E8                          cir.V1_v (V) @ freq=8.4E8 cir.v_2 (V) @ freq=8.4E8                          emw.Vport_1 (V) @ freq=8.4E8                      emw.Ex (V/m) @ freq=8.5E8                         emw.Ey (V/m) @ freq=8.5E8                         emw.Ez (V/m) @ freq=8.5E8                         cir.v_1 (V) @ freq=8.5E8                          cir.V1_v (V) @ freq=8.5E8 cir.v_2 (V) @ freq=8.5E8                          emw.Vport_1 (V) @ freq=8.5E8                      emw.Ex (V/m) @ freq=8.6E8                         emw.Ey (V/m) @ freq=8.6E8                         emw.Ez (V/m) @ freq=8.6E8                         cir.v_1 (V) @ freq=8.6E8                          cir.V1_v (V) @ freq=8.6E8 cir.v_2 (V) @ freq=8.6E8                          emw.Vport_1 (V) @ freq=8.6E8                      emw.Ex (V/m) @ freq=8.7E8                         emw.Ey (V/m) @ freq=8.7E8                         emw.Ez (V/m) @ freq=8.7E8                         cir.v_1 (V) @ freq=8.7E8                          cir.V1_v (V) @ freq=8.7E8 cir.v_2 (V) @ freq=8.7E8                          emw.Vport_1 (V) @ freq=8.7E8                      emw.Ex (V/m) @ freq=8.8E8                         emw.Ey (V/m) @ freq=8.8E8                         emw.Ez (V/m) @ freq=8.8E8                         cir.v_1 (V) @ freq=8.8E8                          cir.V1_v (V) @ freq=8.8E8 cir.v_2 (V) @ freq=8.8E8                          emw.Vport_1 (V) @ freq=8.8E8                      emw.Ex (V/m) @ freq=8.9E8                         emw.Ey (V/m) @ freq=8.9E8                         emw.Ez (V/m) @ freq=8.9E8                         cir.v_1 (V) @ freq=8.9E8                          cir.V1_v (V) @ freq=8.9E8 cir.v_2 (V) @ freq=8.9E8                          emw.Vport_1 (V) @ freq=8.9E8                      emw.Ex (V/m) @ freq=9E8                           emw.Ey (V/m) @ freq=9E8                           emw.Ez (V/m) @ freq=9E8                           cir.v_1 (V) @ freq=9E8                            cir.V1_v (V) @ freq=9E8  cir.v_2 (V) @ freq=9E8                            emw.Vport_1 (V) @ freq=9E8                        emw.Ex (V/m) @ freq=9.1E8                         emw.Ey (V/m) @ freq=9.1E8                         emw.Ez (V/m) @ freq=9.1E8                         cir.v_1 (V) @ freq=9.1E8   